t 11.08 /NodeList/0/$ns3::Ipv4L3Protocol/Tx(1) ns3::Ipv4Header (tos 0x0 DSCP Default ECN Not-ECT ttl 64 id 0 protocol 17 offset (bytes) 0 flags [none] length: 78 10.1.1.1 > 10.1.3.2) ns3::UdpHeader (length: 58 49153 > 9) Payload (size=50)
+ 11.08 /NodeList/0/DeviceList/1/$ns3::PointToPointNetDevice/TxQueue/Enqueue ns3::PppHeader (Point-to-Point Protocol: IP (0x0021)) ns3::Ipv4Header (tos 0x0 DSCP Default ECN Not-ECT ttl 64 id 0 protocol 17 offset (bytes) 0 flags [none] length: 78 10.1.1.1 > 10.1.3.2) ns3::UdpHeader (length: 58 49153 > 9) Payload (size=50)
- 11.08 /NodeList/0/DeviceList/1/$ns3::PointToPointNetDevice/TxQueue/Dequeue ns3::PppHeader (Point-to-Point Protocol: IP (0x0021)) ns3::Ipv4Header (tos 0x0 DSCP Default ECN Not-ECT ttl 64 id 0 protocol 17 offset (bytes) 0 flags [none] length: 78 10.1.1.1 > 10.1.3.2) ns3::UdpHeader (length: 58 49153 > 9) Payload (size=50)
r 11.0821 /NodeList/1/DeviceList/1/$ns3::PointToPointNetDevice/MacRx ns3::PppHeader (Point-to-Point Protocol: IP (0x0021)) ns3::Ipv4Header (tos 0x0 DSCP Default ECN Not-ECT ttl 64 id 0 protocol 17 offset (bytes) 0 flags [none] length: 78 10.1.1.1 > 10.1.3.2) ns3::UdpHeader (length: 58 49153 > 9) Payload (size=50)
r 11.0821 /NodeList/1/$ns3::Ipv4L3Protocol/Rx(1) ns3::Ipv4Header (tos 0x0 DSCP Default ECN Not-ECT ttl 64 id 0 protocol 17 offset (bytes) 0 flags [none] length: 78 10.1.1.1 > 10.1.3.2) ns3::UdpHeader (length: 58 49153 > 9) Payload (size=50)
t 11.0821 /NodeList/1/$ns3::Ipv4L3Protocol/Tx(2) ns3::Ipv4Header (tos 0x0 DSCP Default ECN Not-ECT ttl 63 id 0 protocol 17 offset (bytes) 0 flags [none] length: 78 10.1.1.1 > 10.1.3.2) ns3::UdpHeader (length: 58 49153 > 9) Payload (size=50)
+ 11.0821 /NodeList/1/DeviceList/2/$ns3::PointToPointNetDevice/TxQueue/Enqueue ns3::PppHeader (Point-to-Point Protocol: IP (0x0021)) ns3::Ipv4Header (tos 0x0 DSCP Default ECN Not-ECT ttl 63 id 0 protocol 17 offset (bytes) 0 flags [none] length: 78 10.1.1.1 > 10.1.3.2) ns3::UdpHeader (length: 58 49153 > 9) Payload (size=50)
- 11.0821 /NodeList/1/DeviceList/2/$ns3::PointToPointNetDevice/TxQueue/Dequeue ns3::PppHeader (Point-to-Point Protocol: IP (0x0021)) ns3::Ipv4Header (tos 0x0 DSCP Default ECN Not-ECT ttl 63 id 0 protocol 17 offset (bytes) 0 flags [none] length: 78 10.1.1.1 > 10.1.3.2) ns3::UdpHeader (length: 58 49153 > 9) Payload (size=50)
r 11.0843 /NodeList/2/DeviceList/2/$ns3::PointToPointNetDevice/MacRx ns3::PppHeader (Point-to-Point Protocol: IP (0x0021)) ns3::Ipv4Header (tos 0x0 DSCP Default ECN Not-ECT ttl 63 id 0 protocol 17 offset (bytes) 0 flags [none] length: 78 10.1.1.1 > 10.1.3.2) ns3::UdpHeader (length: 58 49153 > 9) Payload (size=50)
r 11.0843 /NodeList/2/$ns3::Ipv4L3Protocol/Rx(2) ns3::Ipv4Header (tos 0x0 DSCP Default ECN Not-ECT ttl 63 id 0 protocol 17 offset (bytes) 0 flags [none] length: 78 10.1.1.1 > 10.1.3.2) ns3::UdpHeader (length: 58 49153 > 9) Payload (size=50)
t 11.16 /NodeList/0/$ns3::Ipv4L3Protocol/Tx(1) ns3::Ipv4Header (tos 0x0 DSCP Default ECN Not-ECT ttl 64 id 1 protocol 17 offset (bytes) 0 flags [none] length: 78 10.1.1.1 > 10.1.3.2) ns3::UdpHeader (length: 58 49153 > 9) Payload (size=50)
+ 11.16 /NodeList/0/DeviceList/1/$ns3::PointToPointNetDevice/TxQueue/Enqueue ns3::PppHeader (Point-to-Point Protocol: IP (0x0021)) ns3::Ipv4Header (tos 0x0 DSCP Default ECN Not-ECT ttl 64 id 1 protocol 17 offset (bytes) 0 flags [none] length: 78 10.1.1.1 > 10.1.3.2) ns3::UdpHeader (length: 58 49153 > 9) Payload (size=50)
- 11.16 /NodeList/0/DeviceList/1/$ns3::PointToPointNetDevice/TxQueue/Dequeue ns3::PppHeader (Point-to-Point Protocol: IP (0x0021)) ns3::Ipv4Header (tos 0x0 DSCP Default ECN Not-ECT ttl 64 id 1 protocol 17 offset (bytes) 0 flags [none] length: 78 10.1.1.1 > 10.1.3.2) ns3::UdpHeader (length: 58 49153 > 9) Payload (size=50)
r 11.1621 /NodeList/1/DeviceList/1/$ns3::PointToPointNetDevice/MacRx ns3::PppHeader (Point-to-Point Protocol: IP (0x0021)) ns3::Ipv4Header (tos 0x0 DSCP Default ECN Not-ECT ttl 64 id 1 protocol 17 offset (bytes) 0 flags [none] length: 78 10.1.1.1 > 10.1.3.2) ns3::UdpHeader (length: 58 49153 > 9) Payload (size=50)
r 11.1621 /NodeList/1/$ns3::Ipv4L3Protocol/Rx(1) ns3::Ipv4Header (tos 0x0 DSCP Default ECN Not-ECT ttl 64 id 1 protocol 17 offset (bytes) 0 flags [none] length: 78 10.1.1.1 > 10.1.3.2) ns3::UdpHeader (length: 58 49153 > 9) Payload (size=50)
t 11.1621 /NodeList/1/$ns3::Ipv4L3Protocol/Tx(2) ns3::Ipv4Header (tos 0x0 DSCP Default ECN Not-ECT ttl 63 id 1 protocol 17 offset (bytes) 0 flags [none] length: 78 10.1.1.1 > 10.1.3.2) ns3::UdpHeader (length: 58 49153 > 9) Payload (size=50)
+ 11.1621 /NodeList/1/DeviceList/2/$ns3::PointToPointNetDevice/TxQueue/Enqueue ns3::PppHeader (Point-to-Point Protocol: IP (0x0021)) ns3::Ipv4Header (tos 0x0 DSCP Default ECN Not-ECT ttl 63 id 1 protocol 17 offset (bytes) 0 flags [none] length: 78 10.1.1.1 > 10.1.3.2) ns3::UdpHeader (length: 58 49153 > 9) Payload (size=50)
- 11.1621 /NodeList/1/DeviceList/2/$ns3::PointToPointNetDevice/TxQueue/Dequeue ns3::PppHeader (Point-to-Point Protocol: IP (0x0021)) ns3::Ipv4Header (tos 0x0 DSCP Default ECN Not-ECT ttl 63 id 1 protocol 17 offset (bytes) 0 flags [none] length: 78 10.1.1.1 > 10.1.3.2) ns3::UdpHeader (length: 58 49153 > 9) Payload (size=50)
r 11.1643 /NodeList/2/DeviceList/2/$ns3::PointToPointNetDevice/MacRx ns3::PppHeader (Point-to-Point Protocol: IP (0x0021)) ns3::Ipv4Header (tos 0x0 DSCP Default ECN Not-ECT ttl 63 id 1 protocol 17 offset (bytes) 0 flags [none] length: 78 10.1.1.1 > 10.1.3.2) ns3::UdpHeader (length: 58 49153 > 9) Payload (size=50)
r 11.1643 /NodeList/2/$ns3::Ipv4L3Protocol/Rx(2) ns3::Ipv4Header (tos 0x0 DSCP Default ECN Not-ECT ttl 63 id 1 protocol 17 offset (bytes) 0 flags [none] length: 78 10.1.1.1 > 10.1.3.2) ns3::UdpHeader (length: 58 49153 > 9) Payload (size=50)
t 11.24 /NodeList/0/$ns3::Ipv4L3Protocol/Tx(1) ns3::Ipv4Header (tos 0x0 DSCP Default ECN Not-ECT ttl 64 id 2 protocol 17 offset (bytes) 0 flags [none] length: 78 10.1.1.1 > 10.1.3.2) ns3::UdpHeader (length: 58 49153 > 9) Payload (size=50)
+ 11.24 /NodeList/0/DeviceList/1/$ns3::PointToPointNetDevice/TxQueue/Enqueue ns3::PppHeader (Point-to-Point Protocol: IP (0x0021)) ns3::Ipv4Header (tos 0x0 DSCP Default ECN Not-ECT ttl 64 id 2 protocol 17 offset (bytes) 0 flags [none] length: 78 10.1.1.1 > 10.1.3.2) ns3::UdpHeader (length: 58 49153 > 9) Payload (size=50)
- 11.24 /NodeList/0/DeviceList/1/$ns3::PointToPointNetDevice/TxQueue/Dequeue ns3::PppHeader (Point-to-Point Protocol: IP (0x0021)) ns3::Ipv4Header (tos 0x0 DSCP Default ECN Not-ECT ttl 64 id 2 protocol 17 offset (bytes) 0 flags [none] length: 78 10.1.1.1 > 10.1.3.2) ns3::UdpHeader (length: 58 49153 > 9) Payload (size=50)
r 11.2421 /NodeList/1/DeviceList/1/$ns3::PointToPointNetDevice/MacRx ns3::PppHeader (Point-to-Point Protocol: IP (0x0021)) ns3::Ipv4Header (tos 0x0 DSCP Default ECN Not-ECT ttl 64 id 2 protocol 17 offset (bytes) 0 flags [none] length: 78 10.1.1.1 > 10.1.3.2) ns3::UdpHeader (length: 58 49153 > 9) Payload (size=50)
r 11.2421 /NodeList/1/$ns3::Ipv4L3Protocol/Rx(1) ns3::Ipv4Header (tos 0x0 DSCP Default ECN Not-ECT ttl 64 id 2 protocol 17 offset (bytes) 0 flags [none] length: 78 10.1.1.1 > 10.1.3.2) ns3::UdpHeader (length: 58 49153 > 9) Payload (size=50)
t 11.2421 /NodeList/1/$ns3::Ipv4L3Protocol/Tx(2) ns3::Ipv4Header (tos 0x0 DSCP Default ECN Not-ECT ttl 63 id 2 protocol 17 offset (bytes) 0 flags [none] length: 78 10.1.1.1 > 10.1.3.2) ns3::UdpHeader (length: 58 49153 > 9) Payload (size=50)
+ 11.2421 /NodeList/1/DeviceList/2/$ns3::PointToPointNetDevice/TxQueue/Enqueue ns3::PppHeader (Point-to-Point Protocol: IP (0x0021)) ns3::Ipv4Header (tos 0x0 DSCP Default ECN Not-ECT ttl 63 id 2 protocol 17 offset (bytes) 0 flags [none] length: 78 10.1.1.1 > 10.1.3.2) ns3::UdpHeader (length: 58 49153 > 9) Payload (size=50)
- 11.2421 /NodeList/1/DeviceList/2/$ns3::PointToPointNetDevice/TxQueue/Dequeue ns3::PppHeader (Point-to-Point Protocol: IP (0x0021)) ns3::Ipv4Header (tos 0x0 DSCP Default ECN Not-ECT ttl 63 id 2 protocol 17 offset (bytes) 0 flags [none] length: 78 10.1.1.1 > 10.1.3.2) ns3::UdpHeader (length: 58 49153 > 9) Payload (size=50)
r 11.2443 /NodeList/2/DeviceList/2/$ns3::PointToPointNetDevice/MacRx ns3::PppHeader (Point-to-Point Protocol: IP (0x0021)) ns3::Ipv4Header (tos 0x0 DSCP Default ECN Not-ECT ttl 63 id 2 protocol 17 offset (bytes) 0 flags [none] length: 78 10.1.1.1 > 10.1.3.2) ns3::UdpHeader (length: 58 49153 > 9) Payload (size=50)
r 11.2443 /NodeList/2/$ns3::Ipv4L3Protocol/Rx(2) ns3::Ipv4Header (tos 0x0 DSCP Default ECN Not-ECT ttl 63 id 2 protocol 17 offset (bytes) 0 flags [none] length: 78 10.1.1.1 > 10.1.3.2) ns3::UdpHeader (length: 58 49153 > 9) Payload (size=50)
t 11.32 /NodeList/0/$ns3::Ipv4L3Protocol/Tx(1) ns3::Ipv4Header (tos 0x0 DSCP Default ECN Not-ECT ttl 64 id 3 protocol 17 offset (bytes) 0 flags [none] length: 78 10.1.1.1 > 10.1.3.2) ns3::UdpHeader (length: 58 49153 > 9) Payload (size=50)
+ 11.32 /NodeList/0/DeviceList/1/$ns3::PointToPointNetDevice/TxQueue/Enqueue ns3::PppHeader (Point-to-Point Protocol: IP (0x0021)) ns3::Ipv4Header (tos 0x0 DSCP Default ECN Not-ECT ttl 64 id 3 protocol 17 offset (bytes) 0 flags [none] length: 78 10.1.1.1 > 10.1.3.2) ns3::UdpHeader (length: 58 49153 > 9) Payload (size=50)
- 11.32 /NodeList/0/DeviceList/1/$ns3::PointToPointNetDevice/TxQueue/Dequeue ns3::PppHeader (Point-to-Point Protocol: IP (0x0021)) ns3::Ipv4Header (tos 0x0 DSCP Default ECN Not-ECT ttl 64 id 3 protocol 17 offset (bytes) 0 flags [none] length: 78 10.1.1.1 > 10.1.3.2) ns3::UdpHeader (length: 58 49153 > 9) Payload (size=50)
r 11.3221 /NodeList/1/DeviceList/1/$ns3::PointToPointNetDevice/MacRx ns3::PppHeader (Point-to-Point Protocol: IP (0x0021)) ns3::Ipv4Header (tos 0x0 DSCP Default ECN Not-ECT ttl 64 id 3 protocol 17 offset (bytes) 0 flags [none] length: 78 10.1.1.1 > 10.1.3.2) ns3::UdpHeader (length: 58 49153 > 9) Payload (size=50)
r 11.3221 /NodeList/1/$ns3::Ipv4L3Protocol/Rx(1) ns3::Ipv4Header (tos 0x0 DSCP Default ECN Not-ECT ttl 64 id 3 protocol 17 offset (bytes) 0 flags [none] length: 78 10.1.1.1 > 10.1.3.2) ns3::UdpHeader (length: 58 49153 > 9) Payload (size=50)
t 11.3221 /NodeList/1/$ns3::Ipv4L3Protocol/Tx(2) ns3::Ipv4Header (tos 0x0 DSCP Default ECN Not-ECT ttl 63 id 3 protocol 17 offset (bytes) 0 flags [none] length: 78 10.1.1.1 > 10.1.3.2) ns3::UdpHeader (length: 58 49153 > 9) Payload (size=50)
+ 11.3221 /NodeList/1/DeviceList/2/$ns3::PointToPointNetDevice/TxQueue/Enqueue ns3::PppHeader (Point-to-Point Protocol: IP (0x0021)) ns3::Ipv4Header (tos 0x0 DSCP Default ECN Not-ECT ttl 63 id 3 protocol 17 offset (bytes) 0 flags [none] length: 78 10.1.1.1 > 10.1.3.2) ns3::UdpHeader (length: 58 49153 > 9) Payload (size=50)
- 11.3221 /NodeList/1/DeviceList/2/$ns3::PointToPointNetDevice/TxQueue/Dequeue ns3::PppHeader (Point-to-Point Protocol: IP (0x0021)) ns3::Ipv4Header (tos 0x0 DSCP Default ECN Not-ECT ttl 63 id 3 protocol 17 offset (bytes) 0 flags [none] length: 78 10.1.1.1 > 10.1.3.2) ns3::UdpHeader (length: 58 49153 > 9) Payload (size=50)
r 11.3243 /NodeList/2/DeviceList/2/$ns3::PointToPointNetDevice/MacRx ns3::PppHeader (Point-to-Point Protocol: IP (0x0021)) ns3::Ipv4Header (tos 0x0 DSCP Default ECN Not-ECT ttl 63 id 3 protocol 17 offset (bytes) 0 flags [none] length: 78 10.1.1.1 > 10.1.3.2) ns3::UdpHeader (length: 58 49153 > 9) Payload (size=50)
r 11.3243 /NodeList/2/$ns3::Ipv4L3Protocol/Rx(2) ns3::Ipv4Header (tos 0x0 DSCP Default ECN Not-ECT ttl 63 id 3 protocol 17 offset (bytes) 0 flags [none] length: 78 10.1.1.1 > 10.1.3.2) ns3::UdpHeader (length: 58 49153 > 9) Payload (size=50)
t 11.4 /NodeList/0/$ns3::Ipv4L3Protocol/Tx(1) ns3::Ipv4Header (tos 0x0 DSCP Default ECN Not-ECT ttl 64 id 4 protocol 17 offset (bytes) 0 flags [none] length: 78 10.1.1.1 > 10.1.3.2) ns3::UdpHeader (length: 58 49153 > 9) Payload (size=50)
+ 11.4 /NodeList/0/DeviceList/1/$ns3::PointToPointNetDevice/TxQueue/Enqueue ns3::PppHeader (Point-to-Point Protocol: IP (0x0021)) ns3::Ipv4Header (tos 0x0 DSCP Default ECN Not-ECT ttl 64 id 4 protocol 17 offset (bytes) 0 flags [none] length: 78 10.1.1.1 > 10.1.3.2) ns3::UdpHeader (length: 58 49153 > 9) Payload (size=50)
- 11.4 /NodeList/0/DeviceList/1/$ns3::PointToPointNetDevice/TxQueue/Dequeue ns3::PppHeader (Point-to-Point Protocol: IP (0x0021)) ns3::Ipv4Header (tos 0x0 DSCP Default ECN Not-ECT ttl 64 id 4 protocol 17 offset (bytes) 0 flags [none] length: 78 10.1.1.1 > 10.1.3.2) ns3::UdpHeader (length: 58 49153 > 9) Payload (size=50)
r 11.4021 /NodeList/1/DeviceList/1/$ns3::PointToPointNetDevice/MacRx ns3::PppHeader (Point-to-Point Protocol: IP (0x0021)) ns3::Ipv4Header (tos 0x0 DSCP Default ECN Not-ECT ttl 64 id 4 protocol 17 offset (bytes) 0 flags [none] length: 78 10.1.1.1 > 10.1.3.2) ns3::UdpHeader (length: 58 49153 > 9) Payload (size=50)
r 11.4021 /NodeList/1/$ns3::Ipv4L3Protocol/Rx(1) ns3::Ipv4Header (tos 0x0 DSCP Default ECN Not-ECT ttl 64 id 4 protocol 17 offset (bytes) 0 flags [none] length: 78 10.1.1.1 > 10.1.3.2) ns3::UdpHeader (length: 58 49153 > 9) Payload (size=50)
t 11.4021 /NodeList/1/$ns3::Ipv4L3Protocol/Tx(2) ns3::Ipv4Header (tos 0x0 DSCP Default ECN Not-ECT ttl 63 id 4 protocol 17 offset (bytes) 0 flags [none] length: 78 10.1.1.1 > 10.1.3.2) ns3::UdpHeader (length: 58 49153 > 9) Payload (size=50)
+ 11.4021 /NodeList/1/DeviceList/2/$ns3::PointToPointNetDevice/TxQueue/Enqueue ns3::PppHeader (Point-to-Point Protocol: IP (0x0021)) ns3::Ipv4Header (tos 0x0 DSCP Default ECN Not-ECT ttl 63 id 4 protocol 17 offset (bytes) 0 flags [none] length: 78 10.1.1.1 > 10.1.3.2) ns3::UdpHeader (length: 58 49153 > 9) Payload (size=50)
- 11.4021 /NodeList/1/DeviceList/2/$ns3::PointToPointNetDevice/TxQueue/Dequeue ns3::PppHeader (Point-to-Point Protocol: IP (0x0021)) ns3::Ipv4Header (tos 0x0 DSCP Default ECN Not-ECT ttl 63 id 4 protocol 17 offset (bytes) 0 flags [none] length: 78 10.1.1.1 > 10.1.3.2) ns3::UdpHeader (length: 58 49153 > 9) Payload (size=50)
r 11.4043 /NodeList/2/DeviceList/2/$ns3::PointToPointNetDevice/MacRx ns3::PppHeader (Point-to-Point Protocol: IP (0x0021)) ns3::Ipv4Header (tos 0x0 DSCP Default ECN Not-ECT ttl 63 id 4 protocol 17 offset (bytes) 0 flags [none] length: 78 10.1.1.1 > 10.1.3.2) ns3::UdpHeader (length: 58 49153 > 9) Payload (size=50)
r 11.4043 /NodeList/2/$ns3::Ipv4L3Protocol/Rx(2) ns3::Ipv4Header (tos 0x0 DSCP Default ECN Not-ECT ttl 63 id 4 protocol 17 offset (bytes) 0 flags [none] length: 78 10.1.1.1 > 10.1.3.2) ns3::UdpHeader (length: 58 49153 > 9) Payload (size=50)
t 11.48 /NodeList/0/$ns3::Ipv4L3Protocol/Tx(1) ns3::Ipv4Header (tos 0x0 DSCP Default ECN Not-ECT ttl 64 id 5 protocol 17 offset (bytes) 0 flags [none] length: 78 10.1.1.1 > 10.1.3.2) ns3::UdpHeader (length: 58 49153 > 9) Payload (size=50)
+ 11.48 /NodeList/0/DeviceList/1/$ns3::PointToPointNetDevice/TxQueue/Enqueue ns3::PppHeader (Point-to-Point Protocol: IP (0x0021)) ns3::Ipv4Header (tos 0x0 DSCP Default ECN Not-ECT ttl 64 id 5 protocol 17 offset (bytes) 0 flags [none] length: 78 10.1.1.1 > 10.1.3.2) ns3::UdpHeader (length: 58 49153 > 9) Payload (size=50)
- 11.48 /NodeList/0/DeviceList/1/$ns3::PointToPointNetDevice/TxQueue/Dequeue ns3::PppHeader (Point-to-Point Protocol: IP (0x0021)) ns3::Ipv4Header (tos 0x0 DSCP Default ECN Not-ECT ttl 64 id 5 protocol 17 offset (bytes) 0 flags [none] length: 78 10.1.1.1 > 10.1.3.2) ns3::UdpHeader (length: 58 49153 > 9) Payload (size=50)
r 11.4821 /NodeList/1/DeviceList/1/$ns3::PointToPointNetDevice/MacRx ns3::PppHeader (Point-to-Point Protocol: IP (0x0021)) ns3::Ipv4Header (tos 0x0 DSCP Default ECN Not-ECT ttl 64 id 5 protocol 17 offset (bytes) 0 flags [none] length: 78 10.1.1.1 > 10.1.3.2) ns3::UdpHeader (length: 58 49153 > 9) Payload (size=50)
r 11.4821 /NodeList/1/$ns3::Ipv4L3Protocol/Rx(1) ns3::Ipv4Header (tos 0x0 DSCP Default ECN Not-ECT ttl 64 id 5 protocol 17 offset (bytes) 0 flags [none] length: 78 10.1.1.1 > 10.1.3.2) ns3::UdpHeader (length: 58 49153 > 9) Payload (size=50)
t 11.4821 /NodeList/1/$ns3::Ipv4L3Protocol/Tx(2) ns3::Ipv4Header (tos 0x0 DSCP Default ECN Not-ECT ttl 63 id 5 protocol 17 offset (bytes) 0 flags [none] length: 78 10.1.1.1 > 10.1.3.2) ns3::UdpHeader (length: 58 49153 > 9) Payload (size=50)
+ 11.4821 /NodeList/1/DeviceList/2/$ns3::PointToPointNetDevice/TxQueue/Enqueue ns3::PppHeader (Point-to-Point Protocol: IP (0x0021)) ns3::Ipv4Header (tos 0x0 DSCP Default ECN Not-ECT ttl 63 id 5 protocol 17 offset (bytes) 0 flags [none] length: 78 10.1.1.1 > 10.1.3.2) ns3::UdpHeader (length: 58 49153 > 9) Payload (size=50)
- 11.4821 /NodeList/1/DeviceList/2/$ns3::PointToPointNetDevice/TxQueue/Dequeue ns3::PppHeader (Point-to-Point Protocol: IP (0x0021)) ns3::Ipv4Header (tos 0x0 DSCP Default ECN Not-ECT ttl 63 id 5 protocol 17 offset (bytes) 0 flags [none] length: 78 10.1.1.1 > 10.1.3.2) ns3::UdpHeader (length: 58 49153 > 9) Payload (size=50)
r 11.4843 /NodeList/2/DeviceList/2/$ns3::PointToPointNetDevice/MacRx ns3::PppHeader (Point-to-Point Protocol: IP (0x0021)) ns3::Ipv4Header (tos 0x0 DSCP Default ECN Not-ECT ttl 63 id 5 protocol 17 offset (bytes) 0 flags [none] length: 78 10.1.1.1 > 10.1.3.2) ns3::UdpHeader (length: 58 49153 > 9) Payload (size=50)
r 11.4843 /NodeList/2/$ns3::Ipv4L3Protocol/Rx(2) ns3::Ipv4Header (tos 0x0 DSCP Default ECN Not-ECT ttl 63 id 5 protocol 17 offset (bytes) 0 flags [none] length: 78 10.1.1.1 > 10.1.3.2) ns3::UdpHeader (length: 58 49153 > 9) Payload (size=50)
t 11.56 /NodeList/0/$ns3::Ipv4L3Protocol/Tx(1) ns3::Ipv4Header (tos 0x0 DSCP Default ECN Not-ECT ttl 64 id 6 protocol 17 offset (bytes) 0 flags [none] length: 78 10.1.1.1 > 10.1.3.2) ns3::UdpHeader (length: 58 49153 > 9) Payload (size=50)
+ 11.56 /NodeList/0/DeviceList/1/$ns3::PointToPointNetDevice/TxQueue/Enqueue ns3::PppHeader (Point-to-Point Protocol: IP (0x0021)) ns3::Ipv4Header (tos 0x0 DSCP Default ECN Not-ECT ttl 64 id 6 protocol 17 offset (bytes) 0 flags [none] length: 78 10.1.1.1 > 10.1.3.2) ns3::UdpHeader (length: 58 49153 > 9) Payload (size=50)
- 11.56 /NodeList/0/DeviceList/1/$ns3::PointToPointNetDevice/TxQueue/Dequeue ns3::PppHeader (Point-to-Point Protocol: IP (0x0021)) ns3::Ipv4Header (tos 0x0 DSCP Default ECN Not-ECT ttl 64 id 6 protocol 17 offset (bytes) 0 flags [none] length: 78 10.1.1.1 > 10.1.3.2) ns3::UdpHeader (length: 58 49153 > 9) Payload (size=50)
r 11.5621 /NodeList/1/DeviceList/1/$ns3::PointToPointNetDevice/MacRx ns3::PppHeader (Point-to-Point Protocol: IP (0x0021)) ns3::Ipv4Header (tos 0x0 DSCP Default ECN Not-ECT ttl 64 id 6 protocol 17 offset (bytes) 0 flags [none] length: 78 10.1.1.1 > 10.1.3.2) ns3::UdpHeader (length: 58 49153 > 9) Payload (size=50)
r 11.5621 /NodeList/1/$ns3::Ipv4L3Protocol/Rx(1) ns3::Ipv4Header (tos 0x0 DSCP Default ECN Not-ECT ttl 64 id 6 protocol 17 offset (bytes) 0 flags [none] length: 78 10.1.1.1 > 10.1.3.2) ns3::UdpHeader (length: 58 49153 > 9) Payload (size=50)
t 11.5621 /NodeList/1/$ns3::Ipv4L3Protocol/Tx(2) ns3::Ipv4Header (tos 0x0 DSCP Default ECN Not-ECT ttl 63 id 6 protocol 17 offset (bytes) 0 flags [none] length: 78 10.1.1.1 > 10.1.3.2) ns3::UdpHeader (length: 58 49153 > 9) Payload (size=50)
+ 11.5621 /NodeList/1/DeviceList/2/$ns3::PointToPointNetDevice/TxQueue/Enqueue ns3::PppHeader (Point-to-Point Protocol: IP (0x0021)) ns3::Ipv4Header (tos 0x0 DSCP Default ECN Not-ECT ttl 63 id 6 protocol 17 offset (bytes) 0 flags [none] length: 78 10.1.1.1 > 10.1.3.2) ns3::UdpHeader (length: 58 49153 > 9) Payload (size=50)
- 11.5621 /NodeList/1/DeviceList/2/$ns3::PointToPointNetDevice/TxQueue/Dequeue ns3::PppHeader (Point-to-Point Protocol: IP (0x0021)) ns3::Ipv4Header (tos 0x0 DSCP Default ECN Not-ECT ttl 63 id 6 protocol 17 offset (bytes) 0 flags [none] length: 78 10.1.1.1 > 10.1.3.2) ns3::UdpHeader (length: 58 49153 > 9) Payload (size=50)
r 11.5643 /NodeList/2/DeviceList/2/$ns3::PointToPointNetDevice/MacRx ns3::PppHeader (Point-to-Point Protocol: IP (0x0021)) ns3::Ipv4Header (tos 0x0 DSCP Default ECN Not-ECT ttl 63 id 6 protocol 17 offset (bytes) 0 flags [none] length: 78 10.1.1.1 > 10.1.3.2) ns3::UdpHeader (length: 58 49153 > 9) Payload (size=50)
r 11.5643 /NodeList/2/$ns3::Ipv4L3Protocol/Rx(2) ns3::Ipv4Header (tos 0x0 DSCP Default ECN Not-ECT ttl 63 id 6 protocol 17 offset (bytes) 0 flags [none] length: 78 10.1.1.1 > 10.1.3.2) ns3::UdpHeader (length: 58 49153 > 9) Payload (size=50)
t 11.64 /NodeList/0/$ns3::Ipv4L3Protocol/Tx(1) ns3::Ipv4Header (tos 0x0 DSCP Default ECN Not-ECT ttl 64 id 7 protocol 17 offset (bytes) 0 flags [none] length: 78 10.1.1.1 > 10.1.3.2) ns3::UdpHeader (length: 58 49153 > 9) Payload (size=50)
+ 11.64 /NodeList/0/DeviceList/1/$ns3::PointToPointNetDevice/TxQueue/Enqueue ns3::PppHeader (Point-to-Point Protocol: IP (0x0021)) ns3::Ipv4Header (tos 0x0 DSCP Default ECN Not-ECT ttl 64 id 7 protocol 17 offset (bytes) 0 flags [none] length: 78 10.1.1.1 > 10.1.3.2) ns3::UdpHeader (length: 58 49153 > 9) Payload (size=50)
- 11.64 /NodeList/0/DeviceList/1/$ns3::PointToPointNetDevice/TxQueue/Dequeue ns3::PppHeader (Point-to-Point Protocol: IP (0x0021)) ns3::Ipv4Header (tos 0x0 DSCP Default ECN Not-ECT ttl 64 id 7 protocol 17 offset (bytes) 0 flags [none] length: 78 10.1.1.1 > 10.1.3.2) ns3::UdpHeader (length: 58 49153 > 9) Payload (size=50)
r 11.6421 /NodeList/1/DeviceList/1/$ns3::PointToPointNetDevice/MacRx ns3::PppHeader (Point-to-Point Protocol: IP (0x0021)) ns3::Ipv4Header (tos 0x0 DSCP Default ECN Not-ECT ttl 64 id 7 protocol 17 offset (bytes) 0 flags [none] length: 78 10.1.1.1 > 10.1.3.2) ns3::UdpHeader (length: 58 49153 > 9) Payload (size=50)
r 11.6421 /NodeList/1/$ns3::Ipv4L3Protocol/Rx(1) ns3::Ipv4Header (tos 0x0 DSCP Default ECN Not-ECT ttl 64 id 7 protocol 17 offset (bytes) 0 flags [none] length: 78 10.1.1.1 > 10.1.3.2) ns3::UdpHeader (length: 58 49153 > 9) Payload (size=50)
t 11.6421 /NodeList/1/$ns3::Ipv4L3Protocol/Tx(2) ns3::Ipv4Header (tos 0x0 DSCP Default ECN Not-ECT ttl 63 id 7 protocol 17 offset (bytes) 0 flags [none] length: 78 10.1.1.1 > 10.1.3.2) ns3::UdpHeader (length: 58 49153 > 9) Payload (size=50)
+ 11.6421 /NodeList/1/DeviceList/2/$ns3::PointToPointNetDevice/TxQueue/Enqueue ns3::PppHeader (Point-to-Point Protocol: IP (0x0021)) ns3::Ipv4Header (tos 0x0 DSCP Default ECN Not-ECT ttl 63 id 7 protocol 17 offset (bytes) 0 flags [none] length: 78 10.1.1.1 > 10.1.3.2) ns3::UdpHeader (length: 58 49153 > 9) Payload (size=50)
- 11.6421 /NodeList/1/DeviceList/2/$ns3::PointToPointNetDevice/TxQueue/Dequeue ns3::PppHeader (Point-to-Point Protocol: IP (0x0021)) ns3::Ipv4Header (tos 0x0 DSCP Default ECN Not-ECT ttl 63 id 7 protocol 17 offset (bytes) 0 flags [none] length: 78 10.1.1.1 > 10.1.3.2) ns3::UdpHeader (length: 58 49153 > 9) Payload (size=50)
r 11.6443 /NodeList/2/DeviceList/2/$ns3::PointToPointNetDevice/MacRx ns3::PppHeader (Point-to-Point Protocol: IP (0x0021)) ns3::Ipv4Header (tos 0x0 DSCP Default ECN Not-ECT ttl 63 id 7 protocol 17 offset (bytes) 0 flags [none] length: 78 10.1.1.1 > 10.1.3.2) ns3::UdpHeader (length: 58 49153 > 9) Payload (size=50)
r 11.6443 /NodeList/2/$ns3::Ipv4L3Protocol/Rx(2) ns3::Ipv4Header (tos 0x0 DSCP Default ECN Not-ECT ttl 63 id 7 protocol 17 offset (bytes) 0 flags [none] length: 78 10.1.1.1 > 10.1.3.2) ns3::UdpHeader (length: 58 49153 > 9) Payload (size=50)
t 11.72 /NodeList/0/$ns3::Ipv4L3Protocol/Tx(1) ns3::Ipv4Header (tos 0x0 DSCP Default ECN Not-ECT ttl 64 id 8 protocol 17 offset (bytes) 0 flags [none] length: 78 10.1.1.1 > 10.1.3.2) ns3::UdpHeader (length: 58 49153 > 9) Payload (size=50)
+ 11.72 /NodeList/0/DeviceList/1/$ns3::PointToPointNetDevice/TxQueue/Enqueue ns3::PppHeader (Point-to-Point Protocol: IP (0x0021)) ns3::Ipv4Header (tos 0x0 DSCP Default ECN Not-ECT ttl 64 id 8 protocol 17 offset (bytes) 0 flags [none] length: 78 10.1.1.1 > 10.1.3.2) ns3::UdpHeader (length: 58 49153 > 9) Payload (size=50)
- 11.72 /NodeList/0/DeviceList/1/$ns3::PointToPointNetDevice/TxQueue/Dequeue ns3::PppHeader (Point-to-Point Protocol: IP (0x0021)) ns3::Ipv4Header (tos 0x0 DSCP Default ECN Not-ECT ttl 64 id 8 protocol 17 offset (bytes) 0 flags [none] length: 78 10.1.1.1 > 10.1.3.2) ns3::UdpHeader (length: 58 49153 > 9) Payload (size=50)
r 11.7221 /NodeList/1/DeviceList/1/$ns3::PointToPointNetDevice/MacRx ns3::PppHeader (Point-to-Point Protocol: IP (0x0021)) ns3::Ipv4Header (tos 0x0 DSCP Default ECN Not-ECT ttl 64 id 8 protocol 17 offset (bytes) 0 flags [none] length: 78 10.1.1.1 > 10.1.3.2) ns3::UdpHeader (length: 58 49153 > 9) Payload (size=50)
r 11.7221 /NodeList/1/$ns3::Ipv4L3Protocol/Rx(1) ns3::Ipv4Header (tos 0x0 DSCP Default ECN Not-ECT ttl 64 id 8 protocol 17 offset (bytes) 0 flags [none] length: 78 10.1.1.1 > 10.1.3.2) ns3::UdpHeader (length: 58 49153 > 9) Payload (size=50)
t 11.7221 /NodeList/1/$ns3::Ipv4L3Protocol/Tx(2) ns3::Ipv4Header (tos 0x0 DSCP Default ECN Not-ECT ttl 63 id 8 protocol 17 offset (bytes) 0 flags [none] length: 78 10.1.1.1 > 10.1.3.2) ns3::UdpHeader (length: 58 49153 > 9) Payload (size=50)
+ 11.7221 /NodeList/1/DeviceList/2/$ns3::PointToPointNetDevice/TxQueue/Enqueue ns3::PppHeader (Point-to-Point Protocol: IP (0x0021)) ns3::Ipv4Header (tos 0x0 DSCP Default ECN Not-ECT ttl 63 id 8 protocol 17 offset (bytes) 0 flags [none] length: 78 10.1.1.1 > 10.1.3.2) ns3::UdpHeader (length: 58 49153 > 9) Payload (size=50)
- 11.7221 /NodeList/1/DeviceList/2/$ns3::PointToPointNetDevice/TxQueue/Dequeue ns3::PppHeader (Point-to-Point Protocol: IP (0x0021)) ns3::Ipv4Header (tos 0x0 DSCP Default ECN Not-ECT ttl 63 id 8 protocol 17 offset (bytes) 0 flags [none] length: 78 10.1.1.1 > 10.1.3.2) ns3::UdpHeader (length: 58 49153 > 9) Payload (size=50)
r 11.7243 /NodeList/2/DeviceList/2/$ns3::PointToPointNetDevice/MacRx ns3::PppHeader (Point-to-Point Protocol: IP (0x0021)) ns3::Ipv4Header (tos 0x0 DSCP Default ECN Not-ECT ttl 63 id 8 protocol 17 offset (bytes) 0 flags [none] length: 78 10.1.1.1 > 10.1.3.2) ns3::UdpHeader (length: 58 49153 > 9) Payload (size=50)
r 11.7243 /NodeList/2/$ns3::Ipv4L3Protocol/Rx(2) ns3::Ipv4Header (tos 0x0 DSCP Default ECN Not-ECT ttl 63 id 8 protocol 17 offset (bytes) 0 flags [none] length: 78 10.1.1.1 > 10.1.3.2) ns3::UdpHeader (length: 58 49153 > 9) Payload (size=50)
t 11.8 /NodeList/0/$ns3::Ipv4L3Protocol/Tx(1) ns3::Ipv4Header (tos 0x0 DSCP Default ECN Not-ECT ttl 64 id 9 protocol 17 offset (bytes) 0 flags [none] length: 78 10.1.1.1 > 10.1.3.2) ns3::UdpHeader (length: 58 49153 > 9) Payload (size=50)
+ 11.8 /NodeList/0/DeviceList/1/$ns3::PointToPointNetDevice/TxQueue/Enqueue ns3::PppHeader (Point-to-Point Protocol: IP (0x0021)) ns3::Ipv4Header (tos 0x0 DSCP Default ECN Not-ECT ttl 64 id 9 protocol 17 offset (bytes) 0 flags [none] length: 78 10.1.1.1 > 10.1.3.2) ns3::UdpHeader (length: 58 49153 > 9) Payload (size=50)
- 11.8 /NodeList/0/DeviceList/1/$ns3::PointToPointNetDevice/TxQueue/Dequeue ns3::PppHeader (Point-to-Point Protocol: IP (0x0021)) ns3::Ipv4Header (tos 0x0 DSCP Default ECN Not-ECT ttl 64 id 9 protocol 17 offset (bytes) 0 flags [none] length: 78 10.1.1.1 > 10.1.3.2) ns3::UdpHeader (length: 58 49153 > 9) Payload (size=50)
r 11.8021 /NodeList/1/DeviceList/1/$ns3::PointToPointNetDevice/MacRx ns3::PppHeader (Point-to-Point Protocol: IP (0x0021)) ns3::Ipv4Header (tos 0x0 DSCP Default ECN Not-ECT ttl 64 id 9 protocol 17 offset (bytes) 0 flags [none] length: 78 10.1.1.1 > 10.1.3.2) ns3::UdpHeader (length: 58 49153 > 9) Payload (size=50)
r 11.8021 /NodeList/1/$ns3::Ipv4L3Protocol/Rx(1) ns3::Ipv4Header (tos 0x0 DSCP Default ECN Not-ECT ttl 64 id 9 protocol 17 offset (bytes) 0 flags [none] length: 78 10.1.1.1 > 10.1.3.2) ns3::UdpHeader (length: 58 49153 > 9) Payload (size=50)
t 11.8021 /NodeList/1/$ns3::Ipv4L3Protocol/Tx(2) ns3::Ipv4Header (tos 0x0 DSCP Default ECN Not-ECT ttl 63 id 9 protocol 17 offset (bytes) 0 flags [none] length: 78 10.1.1.1 > 10.1.3.2) ns3::UdpHeader (length: 58 49153 > 9) Payload (size=50)
+ 11.8021 /NodeList/1/DeviceList/2/$ns3::PointToPointNetDevice/TxQueue/Enqueue ns3::PppHeader (Point-to-Point Protocol: IP (0x0021)) ns3::Ipv4Header (tos 0x0 DSCP Default ECN Not-ECT ttl 63 id 9 protocol 17 offset (bytes) 0 flags [none] length: 78 10.1.1.1 > 10.1.3.2) ns3::UdpHeader (length: 58 49153 > 9) Payload (size=50)
- 11.8021 /NodeList/1/DeviceList/2/$ns3::PointToPointNetDevice/TxQueue/Dequeue ns3::PppHeader (Point-to-Point Protocol: IP (0x0021)) ns3::Ipv4Header (tos 0x0 DSCP Default ECN Not-ECT ttl 63 id 9 protocol 17 offset (bytes) 0 flags [none] length: 78 10.1.1.1 > 10.1.3.2) ns3::UdpHeader (length: 58 49153 > 9) Payload (size=50)
r 11.8043 /NodeList/2/DeviceList/2/$ns3::PointToPointNetDevice/MacRx ns3::PppHeader (Point-to-Point Protocol: IP (0x0021)) ns3::Ipv4Header (tos 0x0 DSCP Default ECN Not-ECT ttl 63 id 9 protocol 17 offset (bytes) 0 flags [none] length: 78 10.1.1.1 > 10.1.3.2) ns3::UdpHeader (length: 58 49153 > 9) Payload (size=50)
r 11.8043 /NodeList/2/$ns3::Ipv4L3Protocol/Rx(2) ns3::Ipv4Header (tos 0x0 DSCP Default ECN Not-ECT ttl 63 id 9 protocol 17 offset (bytes) 0 flags [none] length: 78 10.1.1.1 > 10.1.3.2) ns3::UdpHeader (length: 58 49153 > 9) Payload (size=50)
t 11.88 /NodeList/0/$ns3::Ipv4L3Protocol/Tx(1) ns3::Ipv4Header (tos 0x0 DSCP Default ECN Not-ECT ttl 64 id 10 protocol 17 offset (bytes) 0 flags [none] length: 78 10.1.1.1 > 10.1.3.2) ns3::UdpHeader (length: 58 49153 > 9) Payload (size=50)
+ 11.88 /NodeList/0/DeviceList/1/$ns3::PointToPointNetDevice/TxQueue/Enqueue ns3::PppHeader (Point-to-Point Protocol: IP (0x0021)) ns3::Ipv4Header (tos 0x0 DSCP Default ECN Not-ECT ttl 64 id 10 protocol 17 offset (bytes) 0 flags [none] length: 78 10.1.1.1 > 10.1.3.2) ns3::UdpHeader (length: 58 49153 > 9) Payload (size=50)
- 11.88 /NodeList/0/DeviceList/1/$ns3::PointToPointNetDevice/TxQueue/Dequeue ns3::PppHeader (Point-to-Point Protocol: IP (0x0021)) ns3::Ipv4Header (tos 0x0 DSCP Default ECN Not-ECT ttl 64 id 10 protocol 17 offset (bytes) 0 flags [none] length: 78 10.1.1.1 > 10.1.3.2) ns3::UdpHeader (length: 58 49153 > 9) Payload (size=50)